V -t * -v 1.0a5 -a 0
A -t * -n 1 -p 0 -o 0x7fffffff -c 30 -a 1
A -t * -h 1 -m 1073741823 -s 0
c -t * -i 0 -n Blue
c -t * -i 1 -n Red
c -t * -i 2 -n Blue
c -t * -i 3 -n Red
n -t * -a 4 -s 4 -S UP -v circle -c black -i black
n -t * -a 0 -s 0 -S UP -v circle -c black -i black
n -t * -a 1 -s 1 -S UP -v circle -c black -i black
n -t * -a 2 -s 2 -S UP -v circle -c black -i black
n -t * -a 3 -s 3 -S UP -v circle -c black -i black
l -t * -s 0 -d 1 -S UP -r 1000000 -D 0.01 -c black
l -t * -s 1 -d 2 -S UP -r 1000000 -D 0.01 -c black
l -t * -s 2 -d 3 -S UP -r 1000000 -D 0.01 -c black
l -t * -s 3 -d 4 -S UP -r 1000000 -D 0.01 -c black
l -t * -s 4 -d 0 -S UP -r 1000000 -D 0.01 -c black
+ -t 0.000169788487334637 -s 0 -d 1 -p rtProtoDV -e 5 -c 0 -i 0 -a 0 -x {0.2 1.2 -1 ------- null}
- -t 0.000169788487334637 -s 0 -d 1 -p rtProtoDV -e 5 -c 0 -i 0 -a 0 -x {0.2 1.2 -1 ------- null}
h -t 0.000169788487334637 -s 0 -d 1 -p rtProtoDV -e 5 -c 0 -i 0 -a 0 -x {0.2 1.2 -1 ------- null}
+ -t 0.000169788487334637 -s 0 -d 4 -p rtProtoDV -e 5 -c 0 -i 1 -a 0 -x {0.2 4.1 -1 ------- null}
- -t 0.000169788487334637 -s 0 -d 4 -p rtProtoDV -e 5 -c 0 -i 1 -a 0 -x {0.2 4.1 -1 ------- null}
h -t 0.000169788487334637 -s 0 -d 4 -p rtProtoDV -e 5 -c 0 -i 1 -a 0 -x {0.2 4.1 -1 ------- null}
+ -t 0.00710233021858257 -s 2 -d 1 -p rtProtoDV -e 5 -c 0 -i 2 -a 0 -x {2.3 1.2 -1 ------- null}
- -t 0.00710233021858257 -s 2 -d 1 -p rtProtoDV -e 5 -c 0 -i 2 -a 0 -x {2.3 1.2 -1 ------- null}
h -t 0.00710233021858257 -s 2 -d 1 -p rtProtoDV -e 5 -c 0 -i 2 -a 0 -x {2.3 1.2 -1 ------- null}
+ -t 0.00710233021858257 -s 2 -d 3 -p rtProtoDV -e 5 -c 0 -i 3 -a 0 -x {2.3 3.5 -1 ------- null}
- -t 0.00710233021858257 -s 2 -d 3 -p rtProtoDV -e 5 -c 0 -i 3 -a 0 -x {2.3 3.5 -1 ------- null}
h -t 0.00710233021858257 -s 2 -d 3 -p rtProtoDV -e 5 -c 0 -i 3 -a 0 -x {2.3 3.5 -1 ------- null}
r -t 0.0102097884873346 -s 0 -d 1 -p rtProtoDV -e 5 -c 0 -i 0 -a 0 -x {0.2 1.2 -1 ------- null}
+ -t 0.0102097884873346 -s 1 -d 0 -p rtProtoDV -e 5 -c 0 -i 4 -a 0 -x {1.2 0.2 -1 ------- null}
- -t 0.0102097884873346 -s 1 -d 0 -p rtProtoDV -e 5 -c 0 -i 4 -a 0 -x {1.2 0.2 -1 ------- null}
h -t 0.0102097884873346 -s 1 -d 0 -p rtProtoDV -e 5 -c 0 -i 4 -a 0 -x {1.2 0.2 -1 ------- null}
+ -t 0.0102097884873346 -s 1 -d 2 -p rtProtoDV -e 5 -c 0 -i 5 -a 0 -x {1.2 2.3 -1 ------- null}
- -t 0.0102097884873346 -s 1 -d 2 -p rtProtoDV -e 5 -c 0 -i 5 -a 0 -x {1.2 2.3 -1 ------- null}
h -t 0.0102097884873346 -s 1 -d 2 -p rtProtoDV -e 5 -c 0 -i 5 -a 0 -x {1.2 2.3 -1 ------- null}
r -t 0.0102097884873346 -s 0 -d 4 -p rtProtoDV -e 5 -c 0 -i 1 -a 0 -x {0.2 4.1 -1 ------- null}
+ -t 0.0102097884873346 -s 4 -d 0 -p rtProtoDV -e 5 -c 0 -i 6 -a 0 -x {4.1 0.2 -1 ------- null}
- -t 0.0102097884873346 -s 4 -d 0 -p rtProtoDV -e 5 -c 0 -i 6 -a 0 -x {4.1 0.2 -1 ------- null}
h -t 0.0102097884873346 -s 4 -d 0 -p rtProtoDV -e 5 -c 0 -i 6 -a 0 -x {4.1 0.2 -1 ------- null}
+ -t 0.0102097884873346 -s 4 -d 3 -p rtProtoDV -e 5 -c 0 -i 7 -a 0 -x {4.1 3.5 -1 ------- null}
- -t 0.0102097884873346 -s 4 -d 3 -p rtProtoDV -e 5 -c 0 -i 7 -a 0 -x {4.1 3.5 -1 ------- null}
h -t 0.0102097884873346 -s 4 -d 3 -p rtProtoDV -e 5 -c 0 -i 7 -a 0 -x {4.1 3.5 -1 ------- null}
r -t 0.0171423302185826 -s 2 -d 1 -p rtProtoDV -e 5 -c 0 -i 2 -a 0 -x {2.3 1.2 -1 ------- null}
+ -t 0.0171423302185826 -s 1 -d 0 -p rtProtoDV -e 5 -c 0 -i 8 -a 0 -x {1.2 0.2 -1 ------- null}
- -t 0.0171423302185826 -s 1 -d 0 -p rtProtoDV -e 5 -c 0 -i 8 -a 0 -x {1.2 0.2 -1 ------- null}
h -t 0.0171423302185826 -s 1 -d 0 -p rtProtoDV -e 5 -c 0 -i 8 -a 0 -x {1.2 0.2 -1 ------- null}
+ -t 0.0171423302185826 -s 1 -d 2 -p rtProtoDV -e 5 -c 0 -i 9 -a 0 -x {1.2 2.3 -1 ------- null}
- -t 0.0171423302185826 -s 1 -d 2 -p rtProtoDV -e 5 -c 0 -i 9 -a 0 -x {1.2 2.3 -1 ------- null}
h -t 0.0171423302185826 -s 1 -d 2 -p rtProtoDV -e 5 -c 0 -i 9 -a 0 -x {1.2 2.3 -1 ------- null}
r -t 0.0171423302185826 -s 2 -d 3 -p rtProtoDV -e 5 -c 0 -i 3 -a 0 -x {2.3 3.5 -1 ------- null}
+ -t 0.0171423302185826 -s 3 -d 2 -p rtProtoDV -e 5 -c 0 -i 10 -a 0 -x {3.5 2.3 -1 ------- null}
- -t 0.0171423302185826 -s 3 -d 2 -p rtProtoDV -e 5 -c 0 -i 10 -a 0 -x {3.5 2.3 -1 ------- null}
h -t 0.0171423302185826 -s 3 -d 2 -p rtProtoDV -e 5 -c 0 -i 10 -a 0 -x {3.5 2.3 -1 ------- null}
+ -t 0.0171423302185826 -s 3 -d 4 -p rtProtoDV -e 5 -c 0 -i 11 -a 0 -x {3.5 4.1 -1 ------- null}
- -t 0.0171423302185826 -s 3 -d 4 -p rtProtoDV -e 5 -c 0 -i 11 -a 0 -x {3.5 4.1 -1 ------- null}
h -t 0.0171423302185826 -s 3 -d 4 -p rtProtoDV -e 5 -c 0 -i 11 -a 0 -x {3.5 4.1 -1 ------- null}
r -t 0.0202497884873346 -s 1 -d 0 -p rtProtoDV -e 5 -c 0 -i 4 -a 0 -x {1.2 0.2 -1 ------- null}
+ -t 0.0202497884873346 -s 0 -d 1 -p rtProtoDV -e 5 -c 0 -i 12 -a 0 -x {0.2 1.2 -1 ------- null}
- -t 0.0202497884873346 -s 0 -d 1 -p rtProtoDV -e 5 -c 0 -i 12 -a 0 -x {0.2 1.2 -1 ------- null}
h -t 0.0202497884873346 -s 0 -d 1 -p rtProtoDV -e 5 -c 0 -i 12 -a 0 -x {0.2 1.2 -1 ------- null}
+ -t 0.0202497884873346 -s 0 -d 4 -p rtProtoDV -e 5 -c 0 -i 13 -a 0 -x {0.2 4.1 -1 ------- null}
- -t 0.0202497884873346 -s 0 -d 4 -p rtProtoDV -e 5 -c 0 -i 13 -a 0 -x {0.2 4.1 -1 ------- null}
h -t 0.0202497884873346 -s 0 -d 4 -p rtProtoDV -e 5 -c 0 -i 13 -a 0 -x {0.2 4.1 -1 ------- null}
r -t 0.0202497884873346 -s 1 -d 2 -p rtProtoDV -e 5 -c 0 -i 5 -a 0 -x {1.2 2.3 -1 ------- null}
+ -t 0.0202497884873346 -s 2 -d 1 -p rtProtoDV -e 5 -c 0 -i 14 -a 0 -x {2.3 1.2 -1 ------- null}
- -t 0.0202497884873346 -s 2 -d 1 -p rtProtoDV -e 5 -c 0 -i 14 -a 0 -x {2.3 1.2 -1 ------- null}
h -t 0.0202497884873346 -s 2 -d 1 -p rtProtoDV -e 5 -c 0 -i 14 -a 0 -x {2.3 1.2 -1 ------- null}
+ -t 0.0202497884873346 -s 2 -d 3 -p rtProtoDV -e 5 -c 0 -i 15 -a 0 -x {2.3 3.5 -1 ------- null}
- -t 0.0202497884873346 -s 2 -d 3 -p rtProtoDV -e 5 -c 0 -i 15 -a 0 -x {2.3 3.5 -1 ------- null}
h -t 0.0202497884873346 -s 2 -d 3 -p rtProtoDV -e 5 -c 0 -i 15 -a 0 -x {2.3 3.5 -1 ------- null}
r -t 0.0202497884873346 -s 4 -d 0 -p rtProtoDV -e 5 -c 0 -i 6 -a 0 -x {4.1 0.2 -1 ------- null}
+ -t 0.0202497884873346 -s 0 -d 1 -p rtProtoDV -e 5 -c 0 -i 16 -a 0 -x {0.2 1.2 -1 ------- null}
+ -t 0.0202497884873346 -s 0 -d 4 -p rtProtoDV -e 5 -c 0 -i 17 -a 0 -x {0.2 4.1 -1 ------- null}
r -t 0.0202497884873346 -s 4 -d 3 -p rtProtoDV -e 5 -c 0 -i 7 -a 0 -x {4.1 3.5 -1 ------- null}
+ -t 0.0202497884873346 -s 3 -d 2 -p rtProtoDV -e 5 -c 0 -i 18 -a 0 -x {3.5 2.3 -1 ------- null}
- -t 0.0202497884873346 -s 3 -d 2 -p rtProtoDV -e 5 -c 0 -i 18 -a 0 -x {3.5 2.3 -1 ------- null}
h -t 0.0202497884873346 -s 3 -d 2 -p rtProtoDV -e 5 -c 0 -i 18 -a 0 -x {3.5 2.3 -1 ------- null}
+ -t 0.0202497884873346 -s 3 -d 4 -p rtProtoDV -e 5 -c 0 -i 19 -a 0 -x {3.5 4.1 -1 ------- null}
- -t 0.0202497884873346 -s 3 -d 4 -p rtProtoDV -e 5 -c 0 -i 19 -a 0 -x {3.5 4.1 -1 ------- null}
h -t 0.0202497884873346 -s 3 -d 4 -p rtProtoDV -e 5 -c 0 -i 19 -a 0 -x {3.5 4.1 -1 ------- null}
- -t 0.0202897884873346 -s 0 -d 1 -p rtProtoDV -e 5 -c 0 -i 16 -a 0 -x {0.2 1.2 -1 ------- null}
h -t 0.0202897884873346 -s 0 -d 1 -p rtProtoDV -e 5 -c 0 -i 16 -a 0 -x {0.2 1.2 -1 ------- null}
- -t 0.0202897884873346 -s 0 -d 4 -p rtProtoDV -e 5 -c 0 -i 17 -a 0 -x {0.2 4.1 -1 ------- null}
h -t 0.0202897884873346 -s 0 -d 4 -p rtProtoDV -e 5 -c 0 -i 17 -a 0 -x {0.2 4.1 -1 ------- null}
r -t 0.0271823302185826 -s 1 -d 0 -p rtProtoDV -e 5 -c 0 -i 8 -a 0 -x {1.2 0.2 -1 ------- null}
r -t 0.0271823302185826 -s 1 -d 2 -p rtProtoDV -e 5 -c 0 -i 9 -a 0 -x {1.2 2.3 -1 ------- null}
r -t 0.0271823302185826 -s 3 -d 2 -p rtProtoDV -e 5 -c 0 -i 10 -a 0 -x {3.5 2.3 -1 ------- null}
+ -t 0.0271823302185826 -s 2 -d 1 -p rtProtoDV -e 5 -c 0 -i 20 -a 0 -x {2.3 1.2 -1 ------- null}
- -t 0.0271823302185826 -s 2 -d 1 -p rtProtoDV -e 5 -c 0 -i 20 -a 0 -x {2.3 1.2 -1 ------- null}
h -t 0.0271823302185826 -s 2 -d 1 -p rtProtoDV -e 5 -c 0 -i 20 -a 0 -x {2.3 1.2 -1 ------- null}
+ -t 0.0271823302185826 -s 2 -d 3 -p rtProtoDV -e 5 -c 0 -i 21 -a 0 -x {2.3 3.5 -1 ------- null}
- -t 0.0271823302185826 -s 2 -d 3 -p rtProtoDV -e 5 -c 0 -i 21 -a 0 -x {2.3 3.5 -1 ------- null}
h -t 0.0271823302185826 -s 2 -d 3 -p rtProtoDV -e 5 -c 0 -i 21 -a 0 -x {2.3 3.5 -1 ------- null}
r -t 0.0271823302185826 -s 3 -d 4 -p rtProtoDV -e 5 -c 0 -i 11 -a 0 -x {3.5 4.1 -1 ------- null}
+ -t 0.0271823302185826 -s 4 -d 0 -p rtProtoDV -e 5 -c 0 -i 22 -a 0 -x {4.1 0.2 -1 ------- null}
- -t 0.0271823302185826 -s 4 -d 0 -p rtProtoDV -e 5 -c 0 -i 22 -a 0 -x {4.1 0.2 -1 ------- null}
h -t 0.0271823302185826 -s 4 -d 0 -p rtProtoDV -e 5 -c 0 -i 22 -a 0 -x {4.1 0.2 -1 ------- null}
+ -t 0.0271823302185826 -s 4 -d 3 -p rtProtoDV -e 5 -c 0 -i 23 -a 0 -x {4.1 3.5 -1 ------- null}
- -t 0.0271823302185826 -s 4 -d 3 -p rtProtoDV -e 5 -c 0 -i 23 -a 0 -x {4.1 3.5 -1 ------- null}
h -t 0.0271823302185826 -s 4 -d 3 -p rtProtoDV -e 5 -c 0 -i 23 -a 0 -x {4.1 3.5 -1 ------- null}
r -t 0.0302897884873346 -s 0 -d 1 -p rtProtoDV -e 5 -c 0 -i 12 -a 0 -x {0.2 1.2 -1 ------- null}
r -t 0.0302897884873346 -s 0 -d 4 -p rtProtoDV -e 5 -c 0 -i 13 -a 0 -x {0.2 4.1 -1 ------- null}
r -t 0.0302897884873346 -s 2 -d 1 -p rtProtoDV -e 5 -c 0 -i 14 -a 0 -x {2.3 1.2 -1 ------- null}
r -t 0.0302897884873346 -s 2 -d 3 -p rtProtoDV -e 5 -c 0 -i 15 -a 0 -x {2.3 3.5 -1 ------- null}
r -t 0.0302897884873346 -s 3 -d 2 -p rtProtoDV -e 5 -c 0 -i 18 -a 0 -x {3.5 2.3 -1 ------- null}
r -t 0.0302897884873346 -s 3 -d 4 -p rtProtoDV -e 5 -c 0 -i 19 -a 0 -x {3.5 4.1 -1 ------- null}
r -t 0.0303297884873346 -s 0 -d 1 -p rtProtoDV -e 5 -c 0 -i 16 -a 0 -x {0.2 1.2 -1 ------- null}
r -t 0.0303297884873346 -s 0 -d 4 -p rtProtoDV -e 5 -c 0 -i 17 -a 0 -x {0.2 4.1 -1 ------- null}
r -t 0.0372223302185826 -s 2 -d 1 -p rtProtoDV -e 5 -c 0 -i 20 -a 0 -x {2.3 1.2 -1 ------- null}
r -t 0.0372223302185826 -s 2 -d 3 -p rtProtoDV -e 5 -c 0 -i 21 -a 0 -x {2.3 3.5 -1 ------- null}
r -t 0.0372223302185826 -s 4 -d 0 -p rtProtoDV -e 5 -c 0 -i 22 -a 0 -x {4.1 0.2 -1 ------- null}
r -t 0.0372223302185826 -s 4 -d 3 -p rtProtoDV -e 5 -c 0 -i 23 -a 0 -x {4.1 3.5 -1 ------- null}
+ -t 0.04406133552271 -s 3 -d 2 -p rtProtoDV -e 5 -c 0 -i 24 -a 0 -x {3.5 2.3 -1 ------- null}
- -t 0.04406133552271 -s 3 -d 2 -p rtProtoDV -e 5 -c 0 -i 24 -a 0 -x {3.5 2.3 -1 ------- null}
h -t 0.04406133552271 -s 3 -d 2 -p rtProtoDV -e 5 -c 0 -i 24 -a 0 -x {3.5 2.3 -1 ------- null}
+ -t 0.04406133552271 -s 3 -d 4 -p rtProtoDV -e 5 -c 0 -i 25 -a 0 -x {3.5 4.1 -1 ------- null}
- -t 0.04406133552271 -s 3 -d 4 -p rtProtoDV -e 5 -c 0 -i 25 -a 0 -x {3.5 4.1 -1 ------- null}
h -t 0.04406133552271 -s 3 -d 4 -p rtProtoDV -e 5 -c 0 -i 25 -a 0 -x {3.5 4.1 -1 ------- null}
r -t 0.05410133552271 -s 3 -d 2 -p rtProtoDV -e 5 -c 0 -i 24 -a 0 -x {3.5 2.3 -1 ------- null}
r -t 0.05410133552271 -s 3 -d 4 -p rtProtoDV -e 5 -c 0 -i 25 -a 0 -x {3.5 4.1 -1 ------- null}
+ -t 0.22058669092161 -s 4 -d 0 -p rtProtoDV -e 5 -c 0 -i 26 -a 0 -x {4.1 0.2 -1 ------- null}
- -t 0.22058669092161 -s 4 -d 0 -p rtProtoDV -e 5 -c 0 -i 26 -a 0 -x {4.1 0.2 -1 ------- null}
h -t 0.22058669092161 -s 4 -d 0 -p rtProtoDV -e 5 -c 0 -i 26 -a 0 -x {4.1 0.2 -1 ------- null}
+ -t 0.22058669092161 -s 4 -d 3 -p rtProtoDV -e 5 -c 0 -i 27 -a 0 -x {4.1 3.5 -1 ------- null}
- -t 0.22058669092161 -s 4 -d 3 -p rtProtoDV -e 5 -c 0 -i 27 -a 0 -x {4.1 3.5 -1 ------- null}
h -t 0.22058669092161 -s 4 -d 3 -p rtProtoDV -e 5 -c 0 -i 27 -a 0 -x {4.1 3.5 -1 ------- null}
r -t 0.23062669092161 -s 4 -d 0 -p rtProtoDV -e 5 -c 0 -i 26 -a 0 -x {4.1 0.2 -1 ------- null}
r -t 0.23062669092161 -s 4 -d 3 -p rtProtoDV -e 5 -c 0 -i 27 -a 0 -x {4.1 3.5 -1 ------- null}
+ -t 0.277940357931862 -s 1 -d 0 -p rtProtoDV -e 5 -c 0 -i 28 -a 0 -x {1.2 0.2 -1 ------- null}
- -t 0.277940357931862 -s 1 -d 0 -p rtProtoDV -e 5 -c 0 -i 28 -a 0 -x {1.2 0.2 -1 ------- null}
h -t 0.277940357931862 -s 1 -d 0 -p rtProtoDV -e 5 -c 0 -i 28 -a 0 -x {1.2 0.2 -1 ------- null}
+ -t 0.277940357931862 -s 1 -d 2 -p rtProtoDV -e 5 -c 0 -i 29 -a 0 -x {1.2 2.3 -1 ------- null}
- -t 0.277940357931862 -s 1 -d 2 -p rtProtoDV -e 5 -c 0 -i 29 -a 0 -x {1.2 2.3 -1 ------- null}
h -t 0.277940357931862 -s 1 -d 2 -p rtProtoDV -e 5 -c 0 -i 29 -a 0 -x {1.2 2.3 -1 ------- null}
r -t 0.287980357931862 -s 1 -d 0 -p rtProtoDV -e 5 -c 0 -i 28 -a 0 -x {1.2 0.2 -1 ------- null}
r -t 0.287980357931862 -s 1 -d 2 -p rtProtoDV -e 5 -c 0 -i 29 -a 0 -x {1.2 2.3 -1 ------- null}
+ -t 1.93228703892431 -s 2 -d 1 -p rtProtoDV -e 5 -c 0 -i 30 -a 0 -x {2.3 1.2 -1 ------- null}
- -t 1.93228703892431 -s 2 -d 1 -p rtProtoDV -e 5 -c 0 -i 30 -a 0 -x {2.3 1.2 -1 ------- null}
h -t 1.93228703892431 -s 2 -d 1 -p rtProtoDV -e 5 -c 0 -i 30 -a 0 -x {2.3 1.2 -1 ------- null}
+ -t 1.93228703892431 -s 2 -d 3 -p rtProtoDV -e 5 -c 0 -i 31 -a 0 -x {2.3 3.5 -1 ------- null}
- -t 1.93228703892431 -s 2 -d 3 -p rtProtoDV -e 5 -c 0 -i 31 -a 0 -x {2.3 3.5 -1 ------- null}
h -t 1.93228703892431 -s 2 -d 3 -p rtProtoDV -e 5 -c 0 -i 31 -a 0 -x {2.3 3.5 -1 ------- null}
r -t 1.94232703892431 -s 2 -d 1 -p rtProtoDV -e 5 -c 0 -i 30 -a 0 -x {2.3 1.2 -1 ------- null}
r -t 1.94232703892431 -s 2 -d 3 -p rtProtoDV -e 5 -c 0 -i 31 -a 0 -x {2.3 3.5 -1 ------- null}
+ -t 2.11442739153953 -s 4 -d 0 -p rtProtoDV -e 5 -c 0 -i 32 -a 0 -x {4.1 0.2 -1 ------- null}
- -t 2.11442739153953 -s 4 -d 0 -p rtProtoDV -e 5 -c 0 -i 32 -a 0 -x {4.1 0.2 -1 ------- null}
h -t 2.11442739153953 -s 4 -d 0 -p rtProtoDV -e 5 -c 0 -i 32 -a 0 -x {4.1 0.2 -1 ------- null}
+ -t 2.11442739153953 -s 4 -d 3 -p rtProtoDV -e 5 -c 0 -i 33 -a 0 -x {4.1 3.5 -1 ------- null}
- -t 2.11442739153953 -s 4 -d 3 -p rtProtoDV -e 5 -c 0 -i 33 -a 0 -x {4.1 3.5 -1 ------- null}
h -t 2.11442739153953 -s 4 -d 3 -p rtProtoDV -e 5 -c 0 -i 33 -a 0 -x {4.1 3.5 -1 ------- null}
+ -t 2.11983196992419 -s 0 -d 1 -p rtProtoDV -e 5 -c 0 -i 34 -a 0 -x {0.2 1.2 -1 ------- null}
- -t 2.11983196992419 -s 0 -d 1 -p rtProtoDV -e 5 -c 0 -i 34 -a 0 -x {0.2 1.2 -1 ------- null}
h -t 2.11983196992419 -s 0 -d 1 -p rtProtoDV -e 5 -c 0 -i 34 -a 0 -x {0.2 1.2 -1 ------- null}
+ -t 2.11983196992419 -s 0 -d 4 -p rtProtoDV -e 5 -c 0 -i 35 -a 0 -x {0.2 4.1 -1 ------- null}
- -t 2.11983196992419 -s 0 -d 4 -p rtProtoDV -e 5 -c 0 -i 35 -a 0 -x {0.2 4.1 -1 ------- null}
h -t 2.11983196992419 -s 0 -d 4 -p rtProtoDV -e 5 -c 0 -i 35 -a 0 -x {0.2 4.1 -1 ------- null}
r -t 2.12446739153953 -s 4 -d 0 -p rtProtoDV -e 5 -c 0 -i 32 -a 0 -x {4.1 0.2 -1 ------- null}
r -t 2.12446739153953 -s 4 -d 3 -p rtProtoDV -e 5 -c 0 -i 33 -a 0 -x {4.1 3.5 -1 ------- null}
r -t 2.12987196992419 -s 0 -d 1 -p rtProtoDV -e 5 -c 0 -i 34 -a 0 -x {0.2 1.2 -1 ------- null}
r -t 2.12987196992419 -s 0 -d 4 -p rtProtoDV -e 5 -c 0 -i 35 -a 0 -x {0.2 4.1 -1 ------- null}
+ -t 2.17065175616678 -s 3 -d 2 -p rtProtoDV -e 5 -c 0 -i 36 -a 0 -x {3.5 2.3 -1 ------- null}
- -t 2.17065175616678 -s 3 -d 2 -p rtProtoDV -e 5 -c 0 -i 36 -a 0 -x {3.5 2.3 -1 ------- null}
h -t 2.17065175616678 -s 3 -d 2 -p rtProtoDV -e 5 -c 0 -i 36 -a 0 -x {3.5 2.3 -1 ------- null}
+ -t 2.17065175616678 -s 3 -d 4 -p rtProtoDV -e 5 -c 0 -i 37 -a 0 -x {3.5 4.1 -1 ------- null}
- -t 2.17065175616678 -s 3 -d 4 -p rtProtoDV -e 5 -c 0 -i 37 -a 0 -x {3.5 4.1 -1 ------- null}
h -t 2.17065175616678 -s 3 -d 4 -p rtProtoDV -e 5 -c 0 -i 37 -a 0 -x {3.5 4.1 -1 ------- null}
r -t 2.18069175616678 -s 3 -d 2 -p rtProtoDV -e 5 -c 0 -i 36 -a 0 -x {3.5 2.3 -1 ------- null}
r -t 2.18069175616678 -s 3 -d 4 -p rtProtoDV -e 5 -c 0 -i 37 -a 0 -x {3.5 4.1 -1 ------- null}
+ -t 2.33348641527513 -s 1 -d 0 -p rtProtoDV -e 5 -c 0 -i 38 -a 0 -x {1.2 0.2 -1 ------- null}
- -t 2.33348641527513 -s 1 -d 0 -p rtProtoDV -e 5 -c 0 -i 38 -a 0 -x {1.2 0.2 -1 ------- null}
h -t 2.33348641527513 -s 1 -d 0 -p rtProtoDV -e 5 -c 0 -i 38 -a 0 -x {1.2 0.2 -1 ------- null}
+ -t 2.33348641527513 -s 1 -d 2 -p rtProtoDV -e 5 -c 0 -i 39 -a 0 -x {1.2 2.3 -1 ------- null}
- -t 2.33348641527513 -s 1 -d 2 -p rtProtoDV -e 5 -c 0 -i 39 -a 0 -x {1.2 2.3 -1 ------- null}
h -t 2.33348641527513 -s 1 -d 2 -p rtProtoDV -e 5 -c 0 -i 39 -a 0 -x {1.2 2.3 -1 ------- null}
r -t 2.34352641527513 -s 1 -d 0 -p rtProtoDV -e 5 -c 0 -i 38 -a 0 -x {1.2 0.2 -1 ------- null}
r -t 2.34352641527513 -s 1 -d 2 -p rtProtoDV -e 5 -c 0 -i 39 -a 0 -x {1.2 2.3 -1 ------- null}
+ -t 3.85591866199668 -s 2 -d 1 -p rtProtoDV -e 5 -c 0 -i 40 -a 0 -x {2.3 1.2 -1 ------- null}
- -t 3.85591866199668 -s 2 -d 1 -p rtProtoDV -e 5 -c 0 -i 40 -a 0 -x {2.3 1.2 -1 ------- null}
h -t 3.85591866199668 -s 2 -d 1 -p rtProtoDV -e 5 -c 0 -i 40 -a 0 -x {2.3 1.2 -1 ------- null}
+ -t 3.85591866199668 -s 2 -d 3 -p rtProtoDV -e 5 -c 0 -i 41 -a 0 -x {2.3 3.5 -1 ------- null}
- -t 3.85591866199668 -s 2 -d 3 -p rtProtoDV -e 5 -c 0 -i 41 -a 0 -x {2.3 3.5 -1 ------- null}
h -t 3.85591866199668 -s 2 -d 3 -p rtProtoDV -e 5 -c 0 -i 41 -a 0 -x {2.3 3.5 -1 ------- null}
r -t 3.86595866199668 -s 2 -d 1 -p rtProtoDV -e 5 -c 0 -i 40 -a 0 -x {2.3 1.2 -1 ------- null}
r -t 3.86595866199668 -s 2 -d 3 -p rtProtoDV -e 5 -c 0 -i 41 -a 0 -x {2.3 3.5 -1 ------- null}
+ -t 3.985490132489 -s 0 -d 1 -p rtProtoDV -e 5 -c 0 -i 42 -a 0 -x {0.2 1.2 -1 ------- null}
- -t 3.985490132489 -s 0 -d 1 -p rtProtoDV -e 5 -c 0 -i 42 -a 0 -x {0.2 1.2 -1 ------- null}
h -t 3.985490132489 -s 0 -d 1 -p rtProtoDV -e 5 -c 0 -i 42 -a 0 -x {0.2 1.2 -1 ------- null}
+ -t 3.985490132489 -s 0 -d 4 -p rtProtoDV -e 5 -c 0 -i 43 -a 0 -x {0.2 4.1 -1 ------- null}
- -t 3.985490132489 -s 0 -d 4 -p rtProtoDV -e 5 -c 0 -i 43 -a 0 -x {0.2 4.1 -1 ------- null}
h -t 3.985490132489 -s 0 -d 4 -p rtProtoDV -e 5 -c 0 -i 43 -a 0 -x {0.2 4.1 -1 ------- null}
+ -t 3.98776957909007 -s 3 -d 2 -p rtProtoDV -e 5 -c 0 -i 44 -a 0 -x {3.5 2.3 -1 ------- null}
- -t 3.98776957909007 -s 3 -d 2 -p rtProtoDV -e 5 -c 0 -i 44 -a 0 -x {3.5 2.3 -1 ------- null}
h -t 3.98776957909007 -s 3 -d 2 -p rtProtoDV -e 5 -c 0 -i 44 -a 0 -x {3.5 2.3 -1 ------- null}
+ -t 3.98776957909007 -s 3 -d 4 -p rtProtoDV -e 5 -c 0 -i 45 -a 0 -x {3.5 4.1 -1 ------- null}
- -t 3.98776957909007 -s 3 -d 4 -p rtProtoDV -e 5 -c 0 -i 45 -a 0 -x {3.5 4.1 -1 ------- null}
h -t 3.98776957909007 -s 3 -d 4 -p rtProtoDV -e 5 -c 0 -i 45 -a 0 -x {3.5 4.1 -1 ------- null}
r -t 3.995530132489 -s 0 -d 1 -p rtProtoDV -e 5 -c 0 -i 42 -a 0 -x {0.2 1.2 -1 ------- null}
r -t 3.995530132489 -s 0 -d 4 -p rtProtoDV -e 5 -c 0 -i 43 -a 0 -x {0.2 4.1 -1 ------- null}
r -t 3.99780957909007 -s 3 -d 2 -p rtProtoDV -e 5 -c 0 -i 44 -a 0 -x {3.5 2.3 -1 ------- null}
r -t 3.99780957909007 -s 3 -d 4 -p rtProtoDV -e 5 -c 0 -i 45 -a 0 -x {3.5 4.1 -1 ------- null}
+ -t 4.24895680628203 -s 4 -d 0 -p rtProtoDV -e 5 -c 0 -i 46 -a 0 -x {4.1 0.2 -1 ------- null}
- -t 4.24895680628203 -s 4 -d 0 -p rtProtoDV -e 5 -c 0 -i 46 -a 0 -x {4.1 0.2 -1 ------- null}
h -t 4.24895680628203 -s 4 -d 0 -p rtProtoDV -e 5 -c 0 -i 46 -a 0 -x {4.1 0.2 -1 ------- null}
+ -t 4.24895680628203 -s 4 -d 3 -p rtProtoDV -e 5 -c 0 -i 47 -a 0 -x {4.1 3.5 -1 ------- null}
- -t 4.24895680628203 -s 4 -d 3 -p rtProtoDV -e 5 -c 0 -i 47 -a 0 -x {4.1 3.5 -1 ------- null}
h -t 4.24895680628203 -s 4 -d 3 -p rtProtoDV -e 5 -c 0 -i 47 -a 0 -x {4.1 3.5 -1 ------- null}
r -t 4.25899680628203 -s 4 -d 0 -p rtProtoDV -e 5 -c 0 -i 46 -a 0 -x {4.1 0.2 -1 ------- null}
r -t 4.25899680628203 -s 4 -d 3 -p rtProtoDV -e 5 -c 0 -i 47 -a 0 -x {4.1 3.5 -1 ------- null}
+ -t 4.38951347893547 -s 1 -d 0 -p rtProtoDV -e 5 -c 0 -i 48 -a 0 -x {1.2 0.2 -1 ------- null}
- -t 4.38951347893547 -s 1 -d 0 -p rtProtoDV -e 5 -c 0 -i 48 -a 0 -x {1.2 0.2 -1 ------- null}
h -t 4.38951347893547 -s 1 -d 0 -p rtProtoDV -e 5 -c 0 -i 48 -a 0 -x {1.2 0.2 -1 ------- null}
+ -t 4.38951347893547 -s 1 -d 2 -p rtProtoDV -e 5 -c 0 -i 49 -a 0 -x {1.2 2.3 -1 ------- null}
- -t 4.38951347893547 -s 1 -d 2 -p rtProtoDV -e 5 -c 0 -i 49 -a 0 -x {1.2 2.3 -1 ------- null}
h -t 4.38951347893547 -s 1 -d 2 -p rtProtoDV -e 5 -c 0 -i 49 -a 0 -x {1.2 2.3 -1 ------- null}
r -t 4.39955347893547 -s 1 -d 0 -p rtProtoDV -e 5 -c 0 -i 48 -a 0 -x {1.2 0.2 -1 ------- null}
r -t 4.39955347893547 -s 1 -d 2 -p rtProtoDV -e 5 -c 0 -i 49 -a 0 -x {1.2 2.3 -1 ------- null}
+ -t 5.70144196129471 -s 2 -d 1 -p rtProtoDV -e 5 -c 0 -i 50 -a 0 -x {2.3 1.2 -1 ------- null}
- -t 5.70144196129471 -s 2 -d 1 -p rtProtoDV -e 5 -c 0 -i 50 -a 0 -x {2.3 1.2 -1 ------- null}
h -t 5.70144196129471 -s 2 -d 1 -p rtProtoDV -e 5 -c 0 -i 50 -a 0 -x {2.3 1.2 -1 ------- null}
+ -t 5.70144196129471 -s 2 -d 3 -p rtProtoDV -e 5 -c 0 -i 51 -a 0 -x {2.3 3.5 -1 ------- null}
- -t 5.70144196129471 -s 2 -d 3 -p rtProtoDV -e 5 -c 0 -i 51 -a 0 -x {2.3 3.5 -1 ------- null}
h -t 5.70144196129471 -s 2 -d 3 -p rtProtoDV -e 5 -c 0 -i 51 -a 0 -x {2.3 3.5 -1 ------- null}
r -t 5.71148196129471 -s 2 -d 1 -p rtProtoDV -e 5 -c 0 -i 50 -a 0 -x {2.3 1.2 -1 ------- null}
r -t 5.71148196129471 -s 2 -d 3 -p rtProtoDV -e 5 -c 0 -i 51 -a 0 -x {2.3 3.5 -1 ------- null}
+ -t 5.95723227358294 -s 3 -d 2 -p rtProtoDV -e 5 -c 0 -i 52 -a 0 -x {3.5 2.3 -1 ------- null}
- -t 5.95723227358294 -s 3 -d 2 -p rtProtoDV -e 5 -c 0 -i 52 -a 0 -x {3.5 2.3 -1 ------- null}
h -t 5.95723227358294 -s 3 -d 2 -p rtProtoDV -e 5 -c 0 -i 52 -a 0 -x {3.5 2.3 -1 ------- null}
+ -t 5.95723227358294 -s 3 -d 4 -p rtProtoDV -e 5 -c 0 -i 53 -a 0 -x {3.5 4.1 -1 ------- null}
- -t 5.95723227358294 -s 3 -d 4 -p rtProtoDV -e 5 -c 0 -i 53 -a 0 -x {3.5 4.1 -1 ------- null}
h -t 5.95723227358294 -s 3 -d 4 -p rtProtoDV -e 5 -c 0 -i 53 -a 0 -x {3.5 4.1 -1 ------- null}
r -t 5.96727227358294 -s 3 -d 2 -p rtProtoDV -e 5 -c 0 -i 52 -a 0 -x {3.5 2.3 -1 ------- null}
r -t 5.96727227358294 -s 3 -d 4 -p rtProtoDV -e 5 -c 0 -i 53 -a 0 -x {3.5 4.1 -1 ------- null}
+ -t 6.11887890781224 -s 4 -d 0 -p rtProtoDV -e 5 -c 0 -i 54 -a 0 -x {4.1 0.2 -1 ------- null}
- -t 6.11887890781224 -s 4 -d 0 -p rtProtoDV -e 5 -c 0 -i 54 -a 0 -x {4.1 0.2 -1 ------- null}
h -t 6.11887890781224 -s 4 -d 0 -p rtProtoDV -e 5 -c 0 -i 54 -a 0 -x {4.1 0.2 -1 ------- null}
+ -t 6.11887890781224 -s 4 -d 3 -p rtProtoDV -e 5 -c 0 -i 55 -a 0 -x {4.1 3.5 -1 ------- null}
- -t 6.11887890781224 -s 4 -d 3 -p rtProtoDV -e 5 -c 0 -i 55 -a 0 -x {4.1 3.5 -1 ------- null}
h -t 6.11887890781224 -s 4 -d 3 -p rtProtoDV -e 5 -c 0 -i 55 -a 0 -x {4.1 3.5 -1 ------- null}
r -t 6.12891890781224 -s 4 -d 0 -p rtProtoDV -e 5 -c 0 -i 54 -a 0 -x {4.1 0.2 -1 ------- null}
r -t 6.12891890781224 -s 4 -d 3 -p rtProtoDV -e 5 -c 0 -i 55 -a 0 -x {4.1 3.5 -1 ------- null}
+ -t 6.12938121144165 -s 0 -d 1 -p rtProtoDV -e 5 -c 0 -i 56 -a 0 -x {0.2 1.2 -1 ------- null}
- -t 6.12938121144165 -s 0 -d 1 -p rtProtoDV -e 5 -c 0 -i 56 -a 0 -x {0.2 1.2 -1 ------- null}
h -t 6.12938121144165 -s 0 -d 1 -p rtProtoDV -e 5 -c 0 -i 56 -a 0 -x {0.2 1.2 -1 ------- null}
+ -t 6.12938121144165 -s 0 -d 4 -p rtProtoDV -e 5 -c 0 -i 57 -a 0 -x {0.2 4.1 -1 ------- null}
- -t 6.12938121144165 -s 0 -d 4 -p rtProtoDV -e 5 -c 0 -i 57 -a 0 -x {0.2 4.1 -1 ------- null}
h -t 6.12938121144165 -s 0 -d 4 -p rtProtoDV -e 5 -c 0 -i 57 -a 0 -x {0.2 4.1 -1 ------- null}
r -t 6.13942121144165 -s 0 -d 1 -p rtProtoDV -e 5 -c 0 -i 56 -a 0 -x {0.2 1.2 -1 ------- null}
r -t 6.13942121144165 -s 0 -d 4 -p rtProtoDV -e 5 -c 0 -i 57 -a 0 -x {0.2 4.1 -1 ------- null}
+ -t 6.22716902062631 -s 1 -d 0 -p rtProtoDV -e 5 -c 0 -i 58 -a 0 -x {1.2 0.2 -1 ------- null}
- -t 6.22716902062631 -s 1 -d 0 -p rtProtoDV -e 5 -c 0 -i 58 -a 0 -x {1.2 0.2 -1 ------- null}
h -t 6.22716902062631 -s 1 -d 0 -p rtProtoDV -e 5 -c 0 -i 58 -a 0 -x {1.2 0.2 -1 ------- null}
+ -t 6.22716902062631 -s 1 -d 2 -p rtProtoDV -e 5 -c 0 -i 59 -a 0 -x {1.2 2.3 -1 ------- null}
- -t 6.22716902062631 -s 1 -d 2 -p rtProtoDV -e 5 -c 0 -i 59 -a 0 -x {1.2 2.3 -1 ------- null}
h -t 6.22716902062631 -s 1 -d 2 -p rtProtoDV -e 5 -c 0 -i 59 -a 0 -x {1.2 2.3 -1 ------- null}
r -t 6.23720902062631 -s 1 -d 0 -p rtProtoDV -e 5 -c 0 -i 58 -a 0 -x {1.2 0.2 -1 ------- null}
r -t 6.23720902062631 -s 1 -d 2 -p rtProtoDV -e 5 -c 0 -i 59 -a 0 -x {1.2 2.3 -1 ------- null}
+ -t 7.82425338282448 -s 2 -d 1 -p rtProtoDV -e 5 -c 0 -i 60 -a 0 -x {2.3 1.2 -1 ------- null}
- -t 7.82425338282448 -s 2 -d 1 -p rtProtoDV -e 5 -c 0 -i 60 -a 0 -x {2.3 1.2 -1 ------- null}
h -t 7.82425338282448 -s 2 -d 1 -p rtProtoDV -e 5 -c 0 -i 60 -a 0 -x {2.3 1.2 -1 ------- null}
+ -t 7.82425338282448 -s 2 -d 3 -p rtProtoDV -e 5 -c 0 -i 61 -a 0 -x {2.3 3.5 -1 ------- null}
- -t 7.82425338282448 -s 2 -d 3 -p rtProtoDV -e 5 -c 0 -i 61 -a 0 -x {2.3 3.5 -1 ------- null}
h -t 7.82425338282448 -s 2 -d 3 -p rtProtoDV -e 5 -c 0 -i 61 -a 0 -x {2.3 3.5 -1 ------- null}
r -t 7.83429338282448 -s 2 -d 1 -p rtProtoDV -e 5 -c 0 -i 60 -a 0 -x {2.3 1.2 -1 ------- null}
r -t 7.83429338282448 -s 2 -d 3 -p rtProtoDV -e 5 -c 0 -i 61 -a 0 -x {2.3 3.5 -1 ------- null}
+ -t 7.8967286837272 -s 3 -d 2 -p rtProtoDV -e 5 -c 0 -i 62 -a 0 -x {3.5 2.3 -1 ------- null}
- -t 7.8967286837272 -s 3 -d 2 -p rtProtoDV -e 5 -c 0 -i 62 -a 0 -x {3.5 2.3 -1 ------- null}
h -t 7.8967286837272 -s 3 -d 2 -p rtProtoDV -e 5 -c 0 -i 62 -a 0 -x {3.5 2.3 -1 ------- null}
+ -t 7.8967286837272 -s 3 -d 4 -p rtProtoDV -e 5 -c 0 -i 63 -a 0 -x {3.5 4.1 -1 ------- null}
- -t 7.8967286837272 -s 3 -d 4 -p rtProtoDV -e 5 -c 0 -i 63 -a 0 -x {3.5 4.1 -1 ------- null}
h -t 7.8967286837272 -s 3 -d 4 -p rtProtoDV -e 5 -c 0 -i 63 -a 0 -x {3.5 4.1 -1 ------- null}
r -t 7.9067686837272 -s 3 -d 2 -p rtProtoDV -e 5 -c 0 -i 62 -a 0 -x {3.5 2.3 -1 ------- null}
r -t 7.9067686837272 -s 3 -d 4 -p rtProtoDV -e 5 -c 0 -i 63 -a 0 -x {3.5 4.1 -1 ------- null}
+ -t 8.02211408723244 -s 4 -d 0 -p rtProtoDV -e 5 -c 0 -i 64 -a 0 -x {4.1 0.2 -1 ------- null}
- -t 8.02211408723244 -s 4 -d 0 -p rtProtoDV -e 5 -c 0 -i 64 -a 0 -x {4.1 0.2 -1 ------- null}
h -t 8.02211408723244 -s 4 -d 0 -p rtProtoDV -e 5 -c 0 -i 64 -a 0 -x {4.1 0.2 -1 ------- null}
+ -t 8.02211408723244 -s 4 -d 3 -p rtProtoDV -e 5 -c 0 -i 65 -a 0 -x {4.1 3.5 -1 ------- null}
- -t 8.02211408723244 -s 4 -d 3 -p rtProtoDV -e 5 -c 0 -i 65 -a 0 -x {4.1 3.5 -1 ------- null}
h -t 8.02211408723244 -s 4 -d 3 -p rtProtoDV -e 5 -c 0 -i 65 -a 0 -x {4.1 3.5 -1 ------- null}
r -t 8.03215408723244 -s 4 -d 0 -p rtProtoDV -e 5 -c 0 -i 64 -a 0 -x {4.1 0.2 -1 ------- null}
r -t 8.03215408723244 -s 4 -d 3 -p rtProtoDV -e 5 -c 0 -i 65 -a 0 -x {4.1 3.5 -1 ------- null}
+ -t 8.09285548184666 -s 0 -d 1 -p rtProtoDV -e 5 -c 0 -i 66 -a 0 -x {0.2 1.2 -1 ------- null}
- -t 8.09285548184666 -s 0 -d 1 -p rtProtoDV -e 5 -c 0 -i 66 -a 0 -x {0.2 1.2 -1 ------- null}
h -t 8.09285548184666 -s 0 -d 1 -p rtProtoDV -e 5 -c 0 -i 66 -a 0 -x {0.2 1.2 -1 ------- null}
+ -t 8.09285548184666 -s 0 -d 4 -p rtProtoDV -e 5 -c 0 -i 67 -a 0 -x {0.2 4.1 -1 ------- null}
- -t 8.09285548184666 -s 0 -d 4 -p rtProtoDV -e 5 -c 0 -i 67 -a 0 -x {0.2 4.1 -1 ------- null}
h -t 8.09285548184666 -s 0 -d 4 -p rtProtoDV -e 5 -c 0 -i 67 -a 0 -x {0.2 4.1 -1 ------- null}
r -t 8.10289548184666 -s 0 -d 1 -p rtProtoDV -e 5 -c 0 -i 66 -a 0 -x {0.2 1.2 -1 ------- null}
r -t 8.10289548184666 -s 0 -d 4 -p rtProtoDV -e 5 -c 0 -i 67 -a 0 -x {0.2 4.1 -1 ------- null}
+ -t 8.23462853847753 -s 1 -d 0 -p rtProtoDV -e 5 -c 0 -i 68 -a 0 -x {1.2 0.2 -1 ------- null}
- -t 8.23462853847753 -s 1 -d 0 -p rtProtoDV -e 5 -c 0 -i 68 -a 0 -x {1.2 0.2 -1 ------- null}
h -t 8.23462853847753 -s 1 -d 0 -p rtProtoDV -e 5 -c 0 -i 68 -a 0 -x {1.2 0.2 -1 ------- null}
+ -t 8.23462853847753 -s 1 -d 2 -p rtProtoDV -e 5 -c 0 -i 69 -a 0 -x {1.2 2.3 -1 ------- null}
- -t 8.23462853847753 -s 1 -d 2 -p rtProtoDV -e 5 -c 0 -i 69 -a 0 -x {1.2 2.3 -1 ------- null}
h -t 8.23462853847753 -s 1 -d 2 -p rtProtoDV -e 5 -c 0 -i 69 -a 0 -x {1.2 2.3 -1 ------- null}
r -t 8.24466853847753 -s 1 -d 0 -p rtProtoDV -e 5 -c 0 -i 68 -a 0 -x {1.2 0.2 -1 ------- null}
r -t 8.24466853847753 -s 1 -d 2 -p rtProtoDV -e 5 -c 0 -i 69 -a 0 -x {1.2 2.3 -1 ------- null}
+ -t 9.81069975737981 -s 2 -d 1 -p rtProtoDV -e 5 -c 0 -i 70 -a 0 -x {2.3 1.2 -1 ------- null}
- -t 9.81069975737981 -s 2 -d 1 -p rtProtoDV -e 5 -c 0 -i 70 -a 0 -x {2.3 1.2 -1 ------- null}
h -t 9.81069975737981 -s 2 -d 1 -p rtProtoDV -e 5 -c 0 -i 70 -a 0 -x {2.3 1.2 -1 ------- null}
+ -t 9.81069975737981 -s 2 -d 3 -p rtProtoDV -e 5 -c 0 -i 71 -a 0 -x {2.3 3.5 -1 ------- null}
- -t 9.81069975737981 -s 2 -d 3 -p rtProtoDV -e 5 -c 0 -i 71 -a 0 -x {2.3 3.5 -1 ------- null}
h -t 9.81069975737981 -s 2 -d 3 -p rtProtoDV -e 5 -c 0 -i 71 -a 0 -x {2.3 3.5 -1 ------- null}
r -t 9.82073975737981 -s 2 -d 1 -p rtProtoDV -e 5 -c 0 -i 70 -a 0 -x {2.3 1.2 -1 ------- null}
r -t 9.82073975737981 -s 2 -d 3 -p rtProtoDV -e 5 -c 0 -i 71 -a 0 -x {2.3 3.5 -1 ------- null}
+ -t 9.97365141663405 -s 3 -d 2 -p rtProtoDV -e 5 -c 0 -i 72 -a 0 -x {3.5 2.3 -1 ------- null}
- -t 9.97365141663405 -s 3 -d 2 -p rtProtoDV -e 5 -c 0 -i 72 -a 0 -x {3.5 2.3 -1 ------- null}
h -t 9.97365141663405 -s 3 -d 2 -p rtProtoDV -e 5 -c 0 -i 72 -a 0 -x {3.5 2.3 -1 ------- null}
+ -t 9.97365141663405 -s 3 -d 4 -p rtProtoDV -e 5 -c 0 -i 73 -a 0 -x {3.5 4.1 -1 ------- null}
- -t 9.97365141663405 -s 3 -d 4 -p rtProtoDV -e 5 -c 0 -i 73 -a 0 -x {3.5 4.1 -1 ------- null}
h -t 9.97365141663405 -s 3 -d 4 -p rtProtoDV -e 5 -c 0 -i 73 -a 0 -x {3.5 4.1 -1 ------- null}
r -t 9.98369141663405 -s 3 -d 2 -p rtProtoDV -e 5 -c 0 -i 72 -a 0 -x {3.5 2.3 -1 ------- null}
r -t 9.98369141663405 -s 3 -d 4 -p rtProtoDV -e 5 -c 0 -i 73 -a 0 -x {3.5 4.1 -1 ------- null}
+ -t 10.1214923222649 -s 1 -d 0 -p rtProtoDV -e 5 -c 0 -i 74 -a 0 -x {1.2 0.2 -1 ------- null}
- -t 10.1214923222649 -s 1 -d 0 -p rtProtoDV -e 5 -c 0 -i 74 -a 0 -x {1.2 0.2 -1 ------- null}
h -t 10.1214923222649 -s 1 -d 0 -p rtProtoDV -e 5 -c 0 -i 74 -a 0 -x {1.2 0.2 -1 ------- null}
+ -t 10.1214923222649 -s 1 -d 2 -p rtProtoDV -e 5 -c 0 -i 75 -a 0 -x {1.2 2.3 -1 ------- null}
- -t 10.1214923222649 -s 1 -d 2 -p rtProtoDV -e 5 -c 0 -i 75 -a 0 -x {1.2 2.3 -1 ------- null}
h -t 10.1214923222649 -s 1 -d 2 -p rtProtoDV -e 5 -c 0 -i 75 -a 0 -x {1.2 2.3 -1 ------- null}
r -t 10.1315323222649 -s 1 -d 0 -p rtProtoDV -e 5 -c 0 -i 74 -a 0 -x {1.2 0.2 -1 ------- null}
r -t 10.1315323222649 -s 1 -d 2 -p rtProtoDV -e 5 -c 0 -i 75 -a 0 -x {1.2 2.3 -1 ------- null}
+ -t 10.1669409997142 -s 4 -d 0 -p rtProtoDV -e 5 -c 0 -i 76 -a 0 -x {4.1 0.2 -1 ------- null}
- -t 10.1669409997142 -s 4 -d 0 -p rtProtoDV -e 5 -c 0 -i 76 -a 0 -x {4.1 0.2 -1 ------- null}